# vtk DataFile Version 2.0
Output of three_d.py
ASCII
DATASET UNSTRUCTURED_GRID
POINTS 117 float
1.000000 1.000000 6229.486686
1.050000 1.000000 5830.340106
1.000000 1.050000 5994.854412
1.050000 1.050000 5603.202752
1.075000 1.075000 5303.196129
1.125000 1.025000 5151.168031
1.187500 1.012500 4757.926891
1.212500 1.087500 4285.150478
1.293750 1.131250 3609.725778
1.406250 1.068750 3183.012138
1.571875 1.065625 2365.179377
1.678125 1.184375 1628.492725
1.923438 1.270312 817.308026
2.201563 1.204687 597.228839
2.655469 1.241406 1099.233888
2.553125 1.409375 967.936716
2.307813 1.323437 563.714998
2.585938 1.257812 946.709879
2.089063 1.267187 607.399254
2.420313 1.260937 672.100180
2.171875 1.265625 563.009676
2.278125 1.384375 533.993619
2.316406 1.474219 570.896598
2.142188 1.326562 530.714277
2.059375 1.328125 574.778726
2.248438 1.445312 506.196004
2.286719 1.535156 546.309757
2.112500 1.387500 500.342642
2.029688 1.389062 544.081962
2.218750 1.506250 480.322153
2.257031 1.596094 523.646679
2.082813 1.448437 471.894770
2.000000 1.450000 515.308962
2.189063 1.567187 456.372065
2.227344 1.657031 502.907365
2.053125 1.509375 445.370662
1.970313 1.510937 488.459725
2.159375 1.628125 434.345741
2.197656 1.717969 484.091815
2.023438 1.570312 420.770317
1.940625 1.571875 463.534252
2.129688 1.689062 414.243180
2.167969 1.778906 467.200028
1.993750 1.631250 398.093736
1.910938 1.632812 440.532543
2.100000 1.750000 396.064383
2.138281 1.839844 452.232005
1.964063 1.692187 377.340919
1.881250 1.693750 419.454597
2.070313 1.810937 379.809350
1.934375 1.753125 358.511865
1.851563 1.754687 400.300415
1.828125 1.634375 523.347889
2.009766 1.766797 352.774461
1.980078 1.827734 336.675240
1.988086 1.895508 335.684402
2.063477 1.909180 392.548145
1.966650 1.792139 341.720002
1.944971 1.920850 318.527047
1.912573 1.997876 306.339321
1.934009 2.101245 332.666468
1.858496 2.203613 307.090453
1.837061 2.100244 285.974766
1.788586 2.099744 283.995535
1.842664 1.894006 329.903990
1.854538 2.126212 291.788655
1.730551 2.228079 273.535214
1.639540 2.343181 277.509604
1.664600 2.201611 299.068674
1.807053 2.145061 280.291858
1.749018 2.273397 274.341040
1.672516 2.356415 271.814461
1.605247 2.462091 278.121788
1.654049 2.311097 277.701611
1.725276 2.282822 271.851982
1.667241 2.411158 274.570872
1.714723 2.273849 271.722903
1.661964 2.347442 272.786294
1.709448 2.298977 271.341707
1.751655 2.216411 273.749638
1.692301 2.321414 271.300525
1.687025 2.346542 271.596100
1.693950 2.328369 271.329785
1.676803 2.350806 271.658556
1.701286 2.311934 271.265074
1.699638 2.304979 271.321819
1.698216 2.310827 271.277046
1.707201 2.301347 271.309425
1.696026 2.316397 271.269866
1.699097 2.317505 271.273993
1.698876 2.315835 271.262587
1.704137 2.311372 271.305819
1.698054 2.315141 271.259988
1.695644 2.319042 271.268478
1.699876 2.313711 271.261015
1.699053 2.313017 271.259614
1.699141 2.311608 271.263081
1.697231 2.314447 271.265847
1.699215 2.313895 271.259280
1.700214 2.311771 271.260074
1.698594 2.314298 271.259331
1.698755 2.315176 271.260231
1.698979 2.313557 271.259199
1.699599 2.313153 271.259338
1.698845 2.314012 271.259164
1.698609 2.313674 271.259817
1.699063 2.313840 271.259124
1.698930 2.314295 271.259283
1.698966 2.313741 271.259136
1.699184 2.313569 271.259109
1.699354 2.313347 271.259150
1.699281 2.313667 271.259203
1.699045 2.313723 271.259109
1.699166 2.313452 271.259117
1.699141 2.313549 271.259107
1.699280 2.313395 271.259123
1.699104 2.313641 271.259104

CELLS 1 118
117
0
1
2
3
4
5
6
7
8
9
10
11
12
13
14
15
16
17
18
19
20
21
22
23
24
25
26
27
28
29
30
31
32
33
34
35
36
37
38
39
40
41
42
43
44
45
46
47
48
49
50
51
52
53
54
55
56
57
58
59
60
61
62
63
64
65
66
67
68
69
70
71
72
73
74
75
76
77
78
79
80
81
82
83
84
85
86
87
88
89
90
91
92
93
94
95
96
97
98
99
100
101
102
103
104
105
106
107
108
109
110
111
112
113
114
115
116

CELL_TYPES 1
4

POINT_DATA 117
SCALARS sample float 1
LOOKUP_TABLE default
0.000000
1.000000
2.000000
3.000000
4.000000
5.000000
6.000000
7.000000
8.000000
9.000000
10.000000
11.000000
12.000000
13.000000
14.000000
15.000000
16.000000
17.000000
18.000000
19.000000
20.000000
21.000000
22.000000
23.000000
24.000000
25.000000
26.000000
27.000000
28.000000
29.000000
30.000000
31.000000
32.000000
33.000000
34.000000
35.000000
36.000000
37.000000
38.000000
39.000000
40.000000
41.000000
42.000000
43.000000
44.000000
45.000000
46.000000
47.000000
48.000000
49.000000
50.000000
51.000000
52.000000
53.000000
54.000000
55.000000
56.000000
57.000000
58.000000
59.000000
60.000000
61.000000
62.000000
63.000000
64.000000
65.000000
66.000000
67.000000
68.000000
69.000000
70.000000
71.000000
72.000000
73.000000
74.000000
75.000000
76.000000
77.000000
78.000000
79.000000
80.000000
81.000000
82.000000
83.000000
84.000000
85.000000
86.000000
87.000000
88.000000
89.000000
90.000000
91.000000
92.000000
93.000000
94.000000
95.000000
96.000000
97.000000
98.000000
99.000000
100.000000
101.000000
102.000000
103.000000
104.000000
105.000000
106.000000
107.000000
108.000000
109.000000
110.000000
111.000000
112.000000
113.000000
114.000000
115.000000
116.000000

